# vtk DataFile Version 2.0
grid description
ASCII
DATASET UNSTRUCTURED_GRID

POINTS 469 double
172.607116 179.678527 0.0
178.000000 183.000000 0.0
173.000000 186.000000 0.0
169.723659 229.388171 0.0
170.000000 224.000000 0.0
172.000000 227.000000 0.0
303.547739 290.000000 0.0
317.320188 253.148421 0.0
363.348259 291.349740 0.0
351.559696 351.559696 0.0
409.000000 330.000000 0.0
409.000000 409.000000 0.0
215.073285 186.491372 0.0
212.000000 191.000000 0.0
210.000000 188.500000 0.0
409.000000 50.000000 0.0
349.833724 83.000590 0.0
354.474973 45.101606 0.0
177.332454 191.999472 0.0
170.000000 191.000000 0.0
163.497048 209.000000 0.0
166.000000 208.000000 0.0
166.000000 210.000000 0.0
180.989049 205.612543 0.0
190.203264 204.962908 0.0
184.238822 210.422405 0.0
198.391735 238.175204 0.0
196.000000 236.000000 0.0
199.000000 235.000000 0.0
163.881050 211.671245 0.0
160.801725 209.000000 0.0
202.362421 366.138287 0.0
225.871053 329.494007 0.0
250.000000 409.000000 0.0
195.013567 239.487140 0.0
189.285815 240.434696 0.0
194.000000 235.000000 0.0
330.000000 409.000000 0.0
246.231464 301.843920 0.0
286.902892 354.057868 0.0
186.406656 182.070899 0.0
182.965879 182.431759 0.0
183.000000 180.000000 0.0
166.557084 228.461944 0.0
216.000000 209.000000 0.0
215.000000 206.000000 0.0
217.000000 205.000000 0.0
333.514756 210.000000 0.0
360.991017 170.626031 0.0
409.000000 250.000000 0.0
172.494032 218.227294 0.0
173.642480 223.738346 0.0
168.983854 237.182169 0.0
167.458098 243.460588 0.0
161.956109 238.798916 0.0
180.587723 183.631585 0.0
181.137138 188.707058 0.0
178.535935 186.421162 0.0
203.257166 190.797134 0.0
197.422578 194.183067 0.0
197.029624 186.785932 0.0
219.029816 217.882454 0.0
215.000000 219.000000 0.0
216.000000 215.000000 0.0
299.233440 244.585614 0.0
307.417141 215.074166 0.0
213.000000 220.000000 0.0
213.000000 222.000000 0.0
169.348469 174.247449 0.0
160.979657 182.961869 0.0
163.016698 163.694497 0.0
175.622606 203.399607 0.0
176.275140 209.000000 0.0
171.283553 207.000000 0.0
191.987832 189.875919 0.0
185.779651 200.132636 0.0
241.392340 93.886952 0.0
229.794822 112.956157 0.0
220.379341 86.364261 0.0
188.000000 236.000000 0.0
185.000000 236.000000 0.0
185.118758 233.262484 0.0
163.582565 222.607472 0.0
168.547143 207.000000 0.0
166.000000 206.000000 0.0
200.648868 185.139779 0.0
197.369461 182.891617 0.0
200.000000 180.000000 0.0
224.641065 181.861030 0.0
233.351440 181.327049 0.0
227.422921 187.730832 0.0
221.160790 207.823700 0.0
225.948166 209.362041 0.0
220.788763 213.000000 0.0
218.087663 201.540584 0.0
216.500000 203.000000 0.0
216.000000 201.000000 0.0
184.053502 184.607004 0.0
208.956761 181.926727 0.0
210.761226 178.151699 0.0
214.505300 182.802450 0.0
289.989996 53.905960 0.0
267.761609 81.680936 0.0
224.519359 58.460131 0.0
181.000000 181.000000 0.0
151.645793 64.121719 0.0
184.202920 95.503782 0.0
160.866261 123.001446 0.0
225.813782 234.404327 0.0
223.692308 226.961538 0.0
230.299850 227.654576 0.0
117.659336 288.640201 0.0
95.685649 271.988610 0.0
115.015594 261.197005 0.0
177.139446 221.407036 0.0
196.500000 228.236342 0.0
196.500000 232.500000 0.0
192.257750 230.368171 0.0
214.000000 216.000000 0.0
225.822031 222.746516 0.0
233.994686 222.132972 0.0
240.619177 199.496393 0.0
232.914554 194.854658 0.0
242.060907 181.875637 0.0
204.500000 225.500000 0.0
210.000000 227.000000 0.0
206.000000 231.000000 0.0
221.293122 262.835857 0.0
205.316761 258.950283 0.0
210.061095 250.828218 0.0
141.226692 235.165319 0.0
132.653283 227.236218 0.0
141.044044 219.626144 0.0
192.805002 165.615355 0.0
192.500000 143.611633 0.0
202.753278 160.288116 0.0
203.966123 187.040323 0.0
204.000000 183.000000 0.0
208.000000 186.000000 0.0
164.149232 207.000000 0.0
130.870032 146.742617 0.0
113.881789 136.228322 0.0
136.412981 122.709607 0.0
93.067993 232.181580 0.0
202.316051 195.895422 0.0
197.434200 201.998176 0.0
203.000000 233.000000 0.0
201.392389 247.177168 0.0
208.544798 241.545036 0.0
186.500000 241.295455 0.0
187.031239 238.585761 0.0
182.696676 194.353783 0.0
182.818156 160.360780 0.0
210.000000 224.000000 0.0
210.166667 221.000000 0.0
212.000000 224.000000 0.0
206.583333 222.305556 0.0
213.000000 193.500000 0.0
211.000000 192.850000 0.0
247.354462 162.039926 0.0
250.153477 173.411100 0.0
230.064234 173.109036 0.0
90.000000 10.000000 0.0
170.000000 10.000000 0.0
179.801115 225.852297 0.0
182.046749 229.883115 0.0
178.249315 228.751142 0.0
202.500000 229.000000 0.0
216.876761 237.876761 0.0
194.750000 172.355474 0.0
197.000000 179.000000 0.0
192.500000 179.000000 0.0
173.722745 153.690285 0.0
173.676387 164.969463 0.0
169.256983 260.739724 0.0
150.336399 258.409282 0.0
156.140672 248.545050 0.0
186.500000 230.895995 0.0
189.500512 226.503069 0.0
177.107198 178.410797 0.0
180.508783 177.517566 0.0
182.997748 237.504504 0.0
183.000000 235.000000 0.0
168.004716 211.499326 0.0
171.932673 212.608916 0.0
169.388907 214.106572 0.0
190.261318 221.120425 0.0
183.044972 225.314912 0.0
215.000000 213.000000 0.0
216.000000 211.000000 0.0
175.098951 212.814826 0.0
173.497981 210.075371 0.0
211.092215 213.364072 0.0
214.350324 202.474919 0.0
212.166667 202.833333 0.0
214.000000 199.000000 0.0
210.430108 217.232527 0.0
207.052945 193.788273 0.0
210.000000 191.000000 0.0
208.653182 208.827855 0.0
214.000000 196.000000 0.0
217.500000 197.500000 0.0
167.318599 183.180157 0.0
96.010470 81.710003 0.0
142.611682 199.255344 0.0
133.493195 191.409520 0.0
140.218006 185.208221 0.0
156.454682 188.948722 0.0
163.955181 188.703107 0.0
215.007284 151.282537 0.0
218.895547 130.766811 0.0
229.953922 148.479122 0.0
161.001873 150.513394 0.0
171.482997 142.635623 0.0
177.440572 172.756808 0.0
10.000000 290.000000 0.0
54.455430 254.710271 0.0
48.218375 316.380950 0.0
42.697684 135.804158 0.0
57.469878 165.546536 0.0
10.000000 170.000000 0.0
178.850887 236.248522 0.0
42.802555 188.088314 0.0
10.000000 210.000000 0.0
173.760598 235.058528 0.0
178.000000 232.000000 0.0
129.934586 216.433139 0.0
175.500000 230.500000 0.0
118.230917 225.122110 0.0
114.031434 239.080564 0.0
173.000000 229.000000 0.0
161.867788 231.588141 0.0
326.880466 104.141309 0.0
299.527381 119.097961 0.0
300.223288 87.976918 0.0
217.966814 221.669561 0.0
247.216285 218.162984 0.0
234.441320 212.931181 0.0
356.631371 113.456690 0.0
409.000000 170.000000 0.0
313.186677 175.098101 0.0
205.089464 177.380715 0.0
229.958004 211.709957 0.0
229.470256 217.258027 0.0
225.840769 214.143473 0.0
216.393084 190.692766 0.0
220.706816 187.029684 0.0
218.146569 181.982745 0.0
188.682073 170.909273 0.0
178.180494 211.676194 0.0
177.499268 214.889964 0.0
173.240435 197.619181 0.0
179.306816 199.131493 0.0
100.320755 209.429532 0.0
125.342338 100.903897 0.0
158.154932 216.628786 0.0
150.238434 213.009401 0.0
155.508139 209.000000 0.0
130.398948 181.307150 0.0
162.149387 213.741112 0.0
147.756563 180.026585 0.0
152.613868 199.941108 0.0
150.238434 206.387839 0.0
166.500000 213.500000 0.0
206.663139 189.750000 0.0
211.362253 195.137297 0.0
121.570610 339.480558 0.0
87.379649 305.773529 0.0
207.337820 236.256730 0.0
212.213073 233.213073 0.0
159.297786 296.952585 0.0
155.162387 277.472262 0.0
173.314803 282.806640 0.0
195.320086 256.647670 0.0
190.919311 247.381133 0.0
214.996575 224.248287 0.0
188.150891 260.307120 0.0
197.777334 268.830984 0.0
183.345705 266.764607 0.0
202.674930 237.349860 0.0
188.919072 244.186219 0.0
187.059918 247.573782 0.0
199.414081 241.242242 0.0
195.795668 243.920388 0.0
167.406183 249.921531 0.0
176.342311 252.357786 0.0
184.481886 239.646635 0.0
192.000000 279.835239 0.0
209.548902 276.336825 0.0
205.510641 301.843920 0.0
210.000000 409.000000 0.0
193.725858 184.535644 0.0
186.166999 188.833999 0.0
188.000000 179.000000 0.0
172.456238 247.555105 0.0
152.613206 237.757863 0.0
180.862099 222.197528 0.0
174.383507 227.058247 0.0
167.000000 217.000000 0.0
189.730488 184.410383 0.0
235.490519 271.128970 0.0
270.777971 276.024548 0.0
218.675424 231.414409 0.0
221.236418 223.875363 0.0
223.086859 218.896715 0.0
218.662451 199.393960 0.0
217.685977 225.592988 0.0
127.387669 170.822401 0.0
113.104752 156.465141 0.0
71.090770 212.643792 0.0
160.357628 204.455241 0.0
138.155634 174.133165 0.0
146.232420 159.515551 0.0
193.713784 210.756306 0.0
151.590776 226.198421 0.0
179.598098 208.650541 0.0
167.862467 209.000000 0.0
169.915348 203.520738 0.0
166.500000 202.000000 0.0
170.520011 210.102457 0.0
257.125476 148.633113 0.0
150.443598 142.739331 0.0
226.861537 160.808176 0.0
219.187796 170.941394 0.0
273.398516 151.858560 0.0
315.619850 144.838686 0.0
225.650907 205.363708 0.0
211.612038 185.160370 0.0
200.253738 174.238787 0.0
230.552857 241.567319 0.0
229.786633 207.066452 0.0
234.269949 208.287676 0.0
252.406088 184.903003 0.0
260.304806 192.237712 0.0
250.287125 195.471717 0.0
276.385319 217.949896 0.0
283.080354 204.371203 0.0
285.461598 230.067056 0.0
195.510297 222.534602 0.0
205.380635 110.256081 0.0
183.043364 120.473186 0.0
184.750429 175.752145 0.0
155.787598 204.438492 0.0
163.585168 203.743377 0.0
10.000000 90.000000 0.0
67.096750 101.528200 0.0
92.210790 116.557192 0.0
84.306914 163.804236 0.0
80.103936 184.652966 0.0
179.651128 242.866459 0.0
178.032813 247.624705 0.0
175.824342 243.110006 0.0
176.516016 225.991992 0.0
200.239650 220.444941 0.0
199.933523 225.212013 0.0
205.846623 214.457149 0.0
209.882045 196.918291 0.0
205.332879 202.074084 0.0
211.624080 229.922189 0.0
213.259479 227.006319 0.0
215.079142 231.001962 0.0
226.368017 249.067612 0.0
235.803042 249.414323 0.0
230.745269 258.500452 0.0
244.047886 254.014591 0.0
209.238261 168.107712 0.0
160.509278 328.807748 0.0
[...]
5 5 5 5 5 5 5 5 5 5 5 5 5 5 5 5 5 5 5 5 5 5 5 5 5 5 5 5 5 5 5 5 5 5 5 5 5 5 5 5 5 5 5 5 5 5 5 5 5 5 5 5 5 5 5 5 5 5 5 5 5 5 5 5 5 5 5 5 5 5 5 5 5 5 5 5 5 5 5 5 5 5 5 5 5 5 5 5 5 5 5 5 5 5 5 5 5 5 5 5 5 5 5 5 5 5 5 5 5 5 5 5 5 5 5 5 5 5 5 5 5 5 5 5 5 5 5 5 5 5 5 5 5 5 5 5 5 5 5 5 5 5 5 5 5 5 5 5 5 5 5 5 5 5 5 5 5 5 5 5 5 5 5 5 5 5 5 5 5 5 5 5 5 5 5 5 5 5 5 5 5 5 5 5 5 5 5 5 5 5 5 5 5 5 5 5 5 5 5 5 5 5 5 5 5 5 5 5 5 5 5 5 5 5 5 5 5 5 5 5 5 5 5 5 5 5 5 5 5 5 5 5 5 5 5 5 5 5 5 5 5 5 5 5 5 5 5 5 5 5 5 5 5 5 5 5 5 5 5 5 5 5 5 5 5 5 5 5 5 5 5 5 5 5 5 5 5 5 5 5 5 5 5 5 5 5 5 5 5 5 5 5 5 5 5 5 5 5 5 5 5 5 5 5 5 5 5 5 5 5 5 5 5 5 5 5 5 5 5 5 5 5 5 5 5 5 5 5 5 5 5 5 5 5 5 5 5 5 5 5 5 5 5 5 5 5 5 5 5 5 5 5 5 5 5 5 5 5 5 5 5 5 5 5 5 5 5 5 5 5 5 5 5 5 5 5 5 5 5 5 5 5 5 5 5 5 5 5 5 5 5 5 5 5 5 5 5 5 5 5 5 5 5 5 5 5 5 5 5 5 5 5 5 5 5 5 5 5 5 5 5 5 5 5 5 5 5 5 5 5 5 5 5 5 5 5 5 5 5 5 5 5 5 5 5 5 5 5 5 5 5 5 5 5 5 5 5 5 5 5 5 5 5 5 5 5 5 5 5 5 5 5 5 5 5 5 5 5 5 5 5 5 5 5 5 5 5 5 5 5 5 5 5 5 5 5 5 5 5 5 5 5 5 5 5 5 5 5 5 5 5 5 5 5 5 5 5 5 5 5 5 5 5 5 5 5 5 5 5 5 5 5 5 5 5 5 5 5 5 5 5 5 5 5 5 5 5 5 5 5 5 5 5 5 5 5 5 5 5 5 5 5 5 5 5 5 5 5 5 5 5 5 5 5 5 5 5 5 5 5 5 5 5 5 5 5 5 5 5 5 5 5 5 5 5 5 5 5 5 5 5 5 5 5 5 5 5 5 5 5 5 5 5 5 5 5 5 5 5 5 5 5 5 5 5 5 5 5 5 5 5 5 5 5 5 5 5 5 5 5 5 5 5 5 5 5 5 5 5 5 5 5 5 5 5 5 5 5 5 5 5 5 5 5 5 5 5 5 5 5 5 5 5 5 5 5 5 5 5 5 5 5 5 5 5 5 5 5 5 5 5 5 5 5 5 5 5 5 5 5 5 5 5 5 5 5 5 5 5 5 5 5 5 5 5 5 5 5 5 5 5 5 5 5 5 5 5 5 5 5 5 5 5 5 5 5 5 5 5 5 5 5 5 5 5 5 5 5 5 5 5 5 5 5 5 5 5 5 5 5 5 5 5 5 5 5 5 5 5 5 5 5 5 5 5 5 5 5 5 5 5 5 5 5 5 5 5 5 5 5 5 5 5 5 5 5 5 5 5 5 5 5 5 5 5 5 5 5 5 5 5 5 5 5 5 5 5 5 5 5 5 5 5 5 5 5 5 5 5 5 5 5 5 5 5 5 5 5 5 5 5 5 5 5 5 5 5 5 5 5 5 5 5 5 5 5 5 5 5 5 5 5 5 5 5 5 5 5 5 5 5 5 5 5 5 5 5 5 5 5 5 5 5 5 5 5 5 5 5 5 5 5 5 5 5 5 5 5 5 5 5 5 5 5 5 CELL_DATA 905
SCALARS scalars float 1
LOOKUP_TABLE gray_colors
0.92
0.86
1.00
1.00
0.88
1.00
0.17
0.52
0.00
0.85
1.00
1.00
0.86
1.00
1.00
0.05
0.97
0.34
1.00
0.04
1.00
0.00
0.00
0.97
1.00
1.00
0.47
1.00
0.00
0.00
1.00
0.19
1.00
0.98
0.01
0.06
1.00
1.00
0.74
0.00
1.00
1.00
0.09
1.00
0.64
1.00
1.00
0.00
0.00
0.57
1.00
1.00
0.11
1.00
1.00
0.00
1.00
0.07
0.80
1.00
1.00
0.00
0.10
1.00
1.00
0.20
0.00
1.00
0.07
0.23
0.00
0.23
0.37
1.00
0.41
1.00
0.00
0.00
0.06
1.00
0.86
1.00
1.00
0.00
0.95
0.95
0.27
0.86
0.85
0.00
0.00
0.22
0.41
0.00
0.06
0.00
0.00
0.00
0.00
0.00
0.47
0.13
0.03
0.00
1.00
1.00
1.00
1.00
1.00
1.00
1.00
0.99
1.00
1.00
1.00
0.93
1.00
0.94
1.00
0.80
1.00
0.90
1.00
1.00
1.00
1.00
1.00
1.00
1.00
1.00
1.00
0.88
1.00
1.00
0.97
1.00
1.00
0.00
0.00
0.00
0.02
0.00
0.02
1.00
1.00
1.00
1.00
1.00
1.00
1.00
1.00
0.94
1.00
0.04
0.06
1.00
1.00
1.00
0.95
1.00
0.81
0.90
1.00
0.96
1.00
0.82
1.00
1.00
0.98
1.00
1.00
1.00
1.00
0.00
0.00
0.00
0.08
1.00
1.00
0.00
0.35
0.00
0.11
0.17
0.00
0.00
0.11
1.00
0.99
1.00
0.93
1.00
0.94
0.81
1.00
1.00
1.00
1.00
1.00
0.01
0.00
0.02
0.03
0.81
1.00
1.00
1.00
1.00
0.98
0.00
0.00
0.00
0.00
0.00
0.00
0.10
0.00
1.00
1.00
1.00
1.00
1.00
1.00
0.00
0.15
1.00
0.99
1.00
0.98
1.00
1.00
0.15
0.02
1.00
1.00
1.00
1.00
0.05
0.00
1.00
1.00
0.96
1.00
1.00
1.00
1.00
1.00
1.00
1.00
1.00
1.00
0.00
0.00
0.00
0.00
0.00
0.00
0.07
0.00
0.00
0.00
0.00
0.00
0.86
0.02
0.01
0.00
0.11
0.00
0.00
0.01
0.79
0.94
1.00
0.82
1.00
1.00
1.00
1.00
1.00
1.00
1.00
1.00
1.00
1.00
1.00
0.98
1.00
1.00
1.00
1.00
0.78
1.00
1.00
1.00
1.00
0.99
0.85
1.00
1.00
1.00
1.00
1.00
0.00
0.00
0.03
0.00
0.00
0.00
0.00
0.09
0.89
0.37
0.29
0.06
0.00
0.00
0.96
0.27
0.81
1.00
0.00
0.06
0.00
0.00
0.00
0.00
0.66
0.94
1.00
1.00
1.00
0.89
0.94
1.00
0.00
0.00
1.00
1.00
1.00
1.00
1.00
1.00
1.00
0.93
0.80
1.00
0.96
1.00
1.00
1.00
0.93
1.00
1.00
1.00
1.00
1.00
1.00
1.00
1.00
1.00
1.00
0.69
1.00
1.00
0.00
0.00
0.00
0.00
0.00
0.00
1.00
1.00
1.00
1.00
0.73
0.00
0.00
0.13
0.00
1.00
1.00
1.00
1.00
0.87
1.00
1.00
0.98
0.95
1.00
1.00
1.00
1.00
1.00
1.00
1.00
1.00
1.00
1.00
1.00
1.00
0.73
0.74
1.00
1.00
1.00
1.00
1.00
1.00
1.00
1.00
1.00
1.00
1.00
0.00
0.07
0.00
0.00
0.00
0.00
0.00
0.16
0.02
0.00
0.00
0.08
0.00
0.18
0.06
0.04
0.00
0.00
0.00
0.00
0.00
0.25
0.00
0.00
0.02
0.97
0.84
1.00
1.00
1.00
1.00
1.00
1.00
1.00
0.73
1.00
1.00
1.00
1.00
1.00
1.00
0.95
0.20
0.05
0.01
0.00
1.00
1.00
0.77
0.02
0.85
0.63
0.00
0.00
0.03
0.00
0.65
0.02
0.00
0.14
0.00
0.09
1.00
1.00
1.00
1.00
1.00
1.00
1.00
1.00
1.00
1.00
1.00
1.00
1.00
1.00
1.00
1.00
1.00
1.00
0.64
1.00
0.90
1.00
1.00
1.00
0.00
0.03
1.00
1.00
1.00
1.00
1.00
1.00
1.00
1.00
1.00
1.00
1.00
1.00
1.00
1.00
1.00
1.00
1.00
1.00
0.86
1.00
1.00
1.00
0.89
1.00
1.00
1.00
1.00
1.00
1.00
1.00
1.00
1.00
0.96
0.31
0.00
0.00
0.00
0.00
1.00
0.94
1.00
1.00
1.00
1.00
1.00
1.00
1.00
1.00
1.00
1.00
1.00
1.00
1.00
1.00
1.00
1.00
0.97
1.00
1.00
1.00
1.00
1.00
0.96
1.00
1.00
1.00
1.00
1.00
0.00
0.01
1.00
0.92
0.96
1.00
1.00
1.00
1.00
1.00
0.00
0.00
1.00
1.00
1.00
1.00
1.00
1.00
1.00
1.00
1.00
1.00
1.00
1.00
1.00
1.00
1.00
1.00
1.00
1.00
1.00
1.00
1.00
1.00
1.00
1.00
1.00
1.00
1.00
1.00
1.00
1.00
1.00
1.00
1.00
1.00
1.00
1.00
1.00
1.00
1.00
1.00
1.00
1.00
1.00
1.00
1.00
1.00
1.00
1.00
1.00
1.00
1.00
1.00
1.00
1.00
1.00
1.00
1.00
1.00
1.00
1.00
1.00
1.00
1.00
1.00
1.00
1.00
1.00
1.00
1.00
1.00
1.00
1.00
1.00
0.06
0.00
0.00
0.00
1.00
1.00
1.00
1.00
1.00
1.00
1.00
0.98
0.15
0.00
0.17
0.06
1.00
1.00
1.00
1.00
1.00
1.00
1.00
1.00
1.00
1.00
1.00
1.00
1.00
1.00
1.00
1.00
1.00
1.00
0.00
0.00
0.00
0.00
0.00
0.00
1.00
1.00
1.00
1.00
1.00
1.00
1.00
1.00
1.00
1.00
1.00
1.00
1.00
1.00
1.00
1.00
1.00
1.00
1.00
1.00
1.00
1.00
1.00
1.00
1.00
0.97
1.00
1.00
1.00
1.00
1.00
1.00
1.00
1.00
1.00
0.77
0.95
1.00
1.00
1.00
1.00
1.00
1.00
1.00
1.00
1.00
1.00
1.00
1.00
1.00
1.00
1.00
1.00
1.00
1.00
1.00
1.00
1.00
1.00
1.00
1.00
1.00
1.00
1.00
1.00
1.00
1.00
1.00
1.00
1.00
1.00
1.00
1.00
1.00
1.00
1.00
1.00
1.00
0.00
0.00
0.00
0.00
1.00
1.00
0.00
0.00
0.00
0.00
0.00
0.00
0.00
0.00
1.00
1.00
1.00
1.00
1.00
1.00
0.00
0.00
0.00
0.00
1.00
1.00
1.00
1.00
1.00
1.00
1.00
1.00
1.00
1.00
1.00
1.00
1.00
1.00
1.00
1.00
1.00
1.00
1.00
1.00
1.00
1.00
1.00
1.00
1.00
1.00
1.00
1.00
1.00
1.00
1.00
0.00
0.00
0.00
0.00
0.00
0.00
1.00
1.00
1.00
1.00
1.00
1.00
1.00
1.00
1.00
1.00
1.00
1.00
1.00
1.00
1.00
1.00
1.00
1.00
1.00
1.00
1.00
1.00
1.00
1.00
1.00
1.00
1.00
1.00
1.00
1.00
1.00
1.00
1.00
1.00
1.00
1.00
1.00
1.00
1.00
1.00
1.00
1.00
1.00
1.00
1.00
1.00
1.00
1.00
1.00
1.00
1.00
1.00
1.00
1.00
1.00
1.00
1.00
1.00
1.00
1.00
1.00
1.00
1.00
1.00
1.00
1.00
1.00
1.00
1.00
1.00
1.00
LOOKUP_TABLE gray_colors 255
0.00 0.00 0.00 1.0
0.00 0.00 0.00 1.0
0.01 0.01 0.01 1.0
0.01 0.01 0.01 1.0
0.02 0.02 0.02 1.0
0.02 0.02 0.02 1.0
0.02 0.02 0.02 1.0
0.03 0.03 0.03 1.0
0.03 0.03 0.03 1.0
0.04 0.04 0.04 1.0
0.04 0.04 0.04 1.0
0.04 0.04 0.04 1.0
0.05 0.05 0.05 1.0
0.05 0.05 0.05 1.0
0.06 0.06 0.06 1.0
0.06 0.06 0.06 1.0
0.06 0.06 0.06 1.0
0.07 0.07 0.07 1.0
0.07 0.07 0.07 1.0
0.07 0.07 0.07 1.0
0.08 0.08 0.08 1.0
0.08 0.08 0.08 1.0
0.09 0.09 0.09 1.0
0.09 0.09 0.09 1.0
0.09 0.09 0.09 1.0
0.10 0.10 0.10 1.0
0.10 0.10 0.10 1.0
0.11 0.11 0.11 1.0
0.11 0.11 0.11 1.0
0.11 0.11 0.11 1.0
0.12 0.12 0.12 1.0
0.12 0.12 0.12 1.0
0.13 0.13 0.13 1.0
0.13 0.13 0.13 1.0
0.13 0.13 0.13 1.0
0.14 0.14 0.14 1.0
0.14 0.14 0.14 1.0
0.15 0.15 0.15 1.0
0.15 0.15 0.15 1.0
0.15 0.15 0.15 1.0
0.16 0.16 0.16 1.0
0.16 0.16 0.16 1.0
0.17 0.17 0.17 1.0
0.17 0.17 0.17 1.0
0.17 0.17 0.17 1.0
0.18 0.18 0.18 1.0
0.18 0.18 0.18 1.0
0.19 0.19 0.19 1.0
0.19 0.19 0.19 1.0
0.19 0.19 0.19 1.0
0.20 0.20 0.20 1.0
0.20 0.20 0.20 1.0
0.20 0.20 0.20 1.0
0.21 0.21 0.21 1.0
0.21 0.21 0.21 1.0
0.22 0.22 0.22 1.0
0.22 0.22 0.22 1.0
0.22 0.22 0.22 1.0
0.23 0.23 0.23 1.0
0.23 0.23 0.23 1.0
0.24 0.24 0.24 1.0
0.24 0.24 0.24 1.0
0.24 0.24 0.24 1.0
0.25 0.25 0.25 1.0
0.25 0.25 0.25 1.0
0.26 0.26 0.26 1.0
0.26 0.26 0.26 1.0
0.26 0.26 0.26 1.0
0.27 0.27 0.27 1.0
0.27 0.27 0.27 1.0
0.28 0.28 0.28 1.0
0.28 0.28 0.28 1.0
0.28 0.28 0.28 1.0
0.29 0.29 0.29 1.0
0.29 0.29 0.29 1.0
0.30 0.30 0.30 1.0
0.30 0.30 0.30 1.0
0.30 0.30 0.30 1.0
0.31 0.31 0.31 1.0
0.31 0.31 0.31 1.0
0.31 0.31 0.31 1.0
0.32 0.32 0.32 1.0
0.32 0.32 0.32 1.0
0.33 0.33 0.33 1.0
0.33 0.33 0.33 1.0
0.33 0.33 0.33 1.0
0.34 0.34 0.34 1.0
0.34 0.34 0.34 1.0
0.35 0.35 0.35 1.0
0.35 0.35 0.35 1.0
0.35 0.35 0.35 1.0
0.36 0.36 0.36 1.0
0.36 0.36 0.36 1.0
0.37 0.37 0.37 1.0
0.37 0.37 0.37 1.0
0.37 0.37 0.37 1.0
0.38 0.38 0.38 1.0
0.38 0.38 0.38 1.0
0.39 0.39 0.39 1.0
0.39 0.39 0.39 1.0
0.39 0.39 0.39 1.0
0.40 0.40 0.40 1.0
0.40 0.40 0.40 1.0
0.41 0.41 0.41 1.0
0.41 0.41 0.41 1.0
0.41 0.41 0.41 1.0
0.42 0.42 0.42 1.0
0.42 0.42 0.42 1.0
0.43 0.43 0.43 1.0
0.43 0.43 0.43 1.0
0.43 0.43 0.43 1.0
0.44 0.44 0.44 1.0
0.44 0.44 0.44 1.0
0.44 0.44 0.44 1.0
0.45 0.45 0.45 1.0
0.45 0.45 0.45 1.0
0.46 0.46 0.46 1.0
0.46 0.46 0.46 1.0
0.46 0.46 0.46 1.0
0.47 0.47 0.47 1.0
0.47 0.47 0.47 1.0
0.48 0.48 0.48 1.0
0.48 0.48 0.48 1.0
0.48 0.48 0.48 1.0
0.49 0.49 0.49 1.0
0.49 0.49 0.49 1.0
0.50 0.50 0.50 1.0
0.50 0.50 0.50 1.0
0.50 0.50 0.50 1.0
0.51 0.51 0.51 1.0
0.51 0.51 0.51 1.0
0.52 0.52 0.52 1.0
0.52 0.52 0.52 1.0
0.52 0.52 0.52 1.0
0.53 0.53 0.53 1.0
0.53 0.53 0.53 1.0
0.54 0.54 0.54 1.0
0.54 0.54 0.54 1.0
0.54 0.54 0.54 1.0
0.55 0.55 0.55 1.0
0.55 0.55 0.55 1.0
0.56 0.56 0.56 1.0
0.56 0.56 0.56 1.0
0.56 0.56 0.56 1.0
0.57 0.57 0.57 1.0
0.57 0.57 0.57 1.0
0.57 0.57 0.57 1.0
0.58 0.58 0.58 1.0
0.58 0.58 0.58 1.0
0.59 0.59 0.59 1.0
0.59 0.59 0.59 1.0
0.59 0.59 0.59 1.0
0.60 0.60 0.60 1.0
0.60 0.60 0.60 1.0
0.61 0.61 0.61 1.0
0.61 0.61 0.61 1.0
0.61 0.61 0.61 1.0
0.62 0.62 0.62 1.0
0.62 0.62 0.62 1.0
0.63 0.63 0.63 1.0
0.63 0.63 0.63 1.0
0.63 0.63 0.63 1.0
0.64 0.64 0.64 1.0
0.64 0.64 0.64 1.0
0.65 0.65 0.65 1.0
0.65 0.65 0.65 1.0
0.65 0.65 0.65 1.0
0.66 0.66 0.66 1.0
0.66 0.66 0.66 1.0
0.67 0.67 0.67 1.0
0.67 0.67 0.67 1.0
0.67 0.67 0.67 1.0
0.68 0.68 0.68 1.0
0.68 0.68 0.68 1.0
0.69 0.69 0.69 1.0
0.69 0.69 0.69 1.0
0.69 0.69 0.69 1.0
0.70 0.70 0.70 1.0
0.70 0.70 0.70 1.0
0.70 0.70 0.70 1.0
0.71 0.71 0.71 1.0
0.71 0.71 0.71 1.0
0.72 0.72 0.72 1.0
0.72 0.72 0.72 1.0
0.72 0.72 0.72 1.0
0.73 0.73 0.73 1.0
0.73 0.73 0.73 1.0
0.74 0.74 0.74 1.0
0.74 0.74 0.74 1.0
0.74 0.74 0.74 1.0
0.75 0.75 0.75 1.0
0.75 0.75 0.75 1.0
0.76 0.76 0.76 1.0
0.76 0.76 0.76 1.0
0.76 0.76 0.76 1.0
0.77 0.77 0.77 1.0
0.77 0.77 0.77 1.0
0.78 0.78 0.78 1.0
0.78 0.78 0.78 1.0
0.78 0.78 0.78 1.0
0.79 0.79 0.79 1.0
0.79 0.79 0.79 1.0
0.80 0.80 0.80 1.0
0.80 0.80 0.80 1.0
0.80 0.80 0.80 1.0
0.81 0.81 0.81 1.0
0.81 0.81 0.81 1.0
0.81 0.81 0.81 1.0
0.82 0.82 0.82 1.0
0.82 0.82 0.82 1.0
0.83 0.83 0.83 1.0
0.83 0.83 0.83 1.0
0.83 0.83 0.83 1.0
0.84 0.84 0.84 1.0
0.84 0.84 0.84 1.0
0.85 0.85 0.85 1.0
0.85 0.85 0.85 1.0
0.85 0.85 0.85 1.0
0.86 0.86 0.86 1.0
0.86 0.86 0.86 1.0
0.87 0.87 0.87 1.0
0.87 0.87 0.87 1.0
0.87 0.87 0.87 1.0
0.88 0.88 0.88 1.0
0.88 0.88 0.88 1.0
0.89 0.89 0.89 1.0
0.89 0.89 0.89 1.0
0.89 0.89 0.89 1.0
0.90 0.90 0.90 1.0
0.90 0.90 0.90 1.0
0.91 0.91 0.91 1.0
0.91 0.91 0.91 1.0
0.91 0.91 0.91 1.0
0.92 0.92 0.92 1.0
0.92 0.92 0.92 1.0
0.93 0.93 0.93 1.0
0.93 0.93 0.93 1.0
0.93 0.93 0.93 1.0
0.94 0.94 0.94 1.0
0.94 0.94 0.94 1.0
0.94 0.94 0.94 1.0
0.95 0.95 0.95 1.0
0.95 0.95 0.95 1.0
0.96 0.96 0.96 1.0
0.96 0.96 0.96 1.0
0.96 0.96 0.96 1.0
0.97 0.97 0.97 1.0
0.97 0.97 0.97 1.0
0.98 0.98 0.98 1.0
0.98 0.98 0.98 1.0
0.98 0.98 0.98 1.0
0.99 0.99 0.99 1.0
0.99 0.99 0.99 1.0
1.00 1.00 1.00 1.0
1.00 1.00 1.00 1.0
